data_global
_chemical_name_mineral 'Iron'
loop_
_publ_author_name
'Zhang J'
'Guyot F'
_journal_name_full 'Physics and Chemistry of Minerals'
_journal_volume 26 
_journal_year 1999
_journal_page_first 206
_journal_page_last 211
_publ_section_title
;
 Thermal equation of iron and Fe0.91Si0.09
 Sample: P = 0.0 GPa, T = 298 K, prior to experiment
;
_database_code_amcsd 0008169
_chemical_formula_sum 'Fe'
_cell_length_a 2.8654
_cell_length_b 2.8654
_cell_length_c 2.8654
_cell_angle_alpha 90
_cell_angle_beta 90
_cell_angle_gamma 90
_cell_volume 23.526
_exptl_crystal_density_diffrn      7.884
_symmetry_space_group_name_H-M 'I m 3 m'
loop_
_space_group_symop_operation_xyz
  'x,y,z'
  '1/2+x,1/2+y,1/2+z'
  'z,-x,y'
  '1/2+z,1/2-x,1/2+y'
  '-y,z,-x'
  '1/2-y,1/2+z,1/2-x'
  'x,-y,z'
  '1/2+x,1/2-y,1/2+z'
  '-z,x,-y'
  '1/2-z,1/2+x,1/2-y'
  'y,-z,x'
  '1/2+y,1/2-z,1/2+x'
  '-x,y,-z'
  '1/2-x,1/2+y,1/2-z'
  'x,-z,-y'
  '1/2+x,1/2-z,1/2-y'
  '-z,y,x'
  '1/2-z,1/2+y,1/2+x'
  'y,-x,-z'
  '1/2+y,1/2-x,1/2-z'
  '-x,z,y'
  '1/2-x,1/2+z,1/2+y'
  'z,-y,-x'
  '1/2+z,1/2-y,1/2-x'
  '-y,x,z'
  '1/2-y,1/2+x,1/2+z'
  'x,z,y'
  '1/2+x,1/2+z,1/2+y'
  '-z,-y,-x'
  '1/2-z,1/2-y,1/2-x'
  'y,x,z'
  '1/2+y,1/2+x,1/2+z'
  '-x,-z,-y'
  '1/2-x,1/2-z,1/2-y'
  'z,y,x'
  '1/2+z,1/2+y,1/2+x'
  '-y,-x,-z'
  '1/2-y,1/2-x,1/2-z'
  'z,x,-y'
  '1/2+z,1/2+x,1/2-y'
  '-y,-z,x'
  '1/2-y,1/2-z,1/2+x'
  'x,y,-z'
  '1/2+x,1/2+y,1/2-z'
  '-z,-x,y'
  '1/2-z,1/2-x,1/2+y'
  'y,z,-x'
  '1/2+y,1/2+z,1/2-x'
  '-x,-y,z'
  '1/2-x,1/2-y,1/2+z'
  '-z,x,y'
  '1/2-z,1/2+x,1/2+y'
  'y,-z,-x'
  '1/2+y,1/2-z,1/2-x'
  '-x,y,z'
  '1/2-x,1/2+y,1/2+z'
  'z,-x,-y'
  '1/2+z,1/2-x,1/2-y'
  '-y,z,x'
  '1/2-y,1/2+z,1/2+x'
  'x,-y,-z'
  '1/2+x,1/2-y,1/2-z'
  '-x,z,-y'
  '1/2-x,1/2+z,1/2-y'
  'z,-y,x'
  '1/2+z,1/2-y,1/2+x'
  '-y,x,-z'
  '1/2-y,1/2+x,1/2-z'
  'x,-z,y'
  '1/2+x,1/2-z,1/2+y'
  '-z,y,-x'
  '1/2-z,1/2+y,1/2-x'
  'y,-x,z'
  '1/2+y,1/2-x,1/2+z'
  '-x,-z,y'
  '1/2-x,1/2-z,1/2+y'
  'z,y,-x'
  '1/2+z,1/2+y,1/2-x'
  '-y,-x,z'
  '1/2-y,1/2-x,1/2+z'
  'x,z,-y'
  '1/2+x,1/2+z,1/2-y'
  '-z,-y,x'
  '1/2-z,1/2-y,1/2+x'
  'y,x,-z'
  '1/2+y,1/2+x,1/2-z'
  '-z,-x,-y'
  '1/2-z,1/2-x,1/2-y'
  'y,z,x'
  '1/2+y,1/2+z,1/2+x'
  '-x,-y,-z'
  '1/2-x,1/2-y,1/2-z'
  'z,x,y'
  '1/2+z,1/2+x,1/2+y'
  '-y,-z,-x'
  '1/2-y,1/2-z,1/2-x'
loop_
_atom_site_label
_atom_site_fract_x
_atom_site_fract_y
_atom_site_fract_z
Fe   0.00000   0.00000   0.00000

